ITEM: TIMESTEP
20000
ITEM: NUMBER OF CELLS
13275
ITEM: BOX BOUNDS oo rs pp
-0.0005 0.029
0 0.0045
-0.5 0.5
ITEM: CELLS id xc yc f_Ttra[*] f_Press[*] f_Mrho[*] f_U[*] f_V[*] f_W[*] 
1 -0.00045 5e-05 373.37 10.5778 9.54174e-05 191.074 -0.259841 -0.259841 
2 -0.00035 5e-05 368.153 9.34668 8.55066e-05 211.262 1.71875 1.71875 
3 -0.00025 5e-05 363.86 8.39226 7.76809e-05 226.777 3.80944 3.80944 
4 -0.00015 5e-05 359.585 7.57131 7.09152e-05 238.999 5.10594 5.10594 
5 -5e-05 5e-05 356.644 6.87287 6.49043e-05 248.658 6.46222 6.46222 
6 5e-05 5e-05 353.79 6.26354 5.96271e-05 256.446 7.72703 7.72703 
7 0.00015 5e-05 351.818 5.74542 5.50013e-05 260.604 8.54277 8.54277 
8 0.00025 5e-05 352.106 5.32485 5.09335e-05 261.876 9.93248 9.93248 
9 0.00035 5e-05 353.42 4.98355 4.74917e-05 260.345 10.1617 10.1617 
10 0.00045 5e-05 356.083 4.71777 4.46226e-05 256.085 10.194 10.194 
11 0.00055 5e-05 359.828 4.50086 4.21279e-05 249.932 10.0367 10.0367 
12 0.00065 5e-05 363.685 4.32111 4.00166e-05 243.499 9.28711 9.28711 
13 0.00075 5e-05 368.172 4.18858 3.83165e-05 235.593 9.03467 9.03467 
14 0.00085 5e-05 371.788 4.06415 3.68167e-05 228.56 7.98811 7.98811 
15 0.00095 5e-05 375.19 3.9639 3.55828e-05 220.255 7.31225 7.31225 
16 0.00105 5e-05 378.813 3.88227 3.45168e-05 212.982 6.59444 6.59444 
17 0.00115 5e-05 381.484 3.80163 3.35631e-05 205.906 6.10443 6.10443 
18 0.00125 5e-05 384.31 3.73201 3.27062e-05 199.745 5.44938 5.44938 
19 0.00135 5e-05 386.797 3.66874 3.1945e-05 193.556 5.03229 5.03229 
20 0.00145 5e-05 389.18 3.62241 3.13485e-05 187.139 4.50204 4.50204 
21 0.00155 5e-05 391.371 3.57843 3.07945e-05 182.015 4.20951 4.20951 
22 0.00165 5e-05 393.314 3.53706 3.02881e-05 176.539 4.0405 4.0405 
23 0.00175 5e-05 394.41 3.4905 2.98064e-05 171.664 3.66835 3.66835 
24 0.00185 5e-05 396.364 3.45662 2.93715e-05 167.472 3.60508 3.60508 
25 0.00195 5e-05 397.507 3.42628 2.90301e-05 162.338 3.36017 3.36017 
26 0.00205 5e-05 398.747 3.39572 2.86816e-05 157.937 2.90618 2.90618 
27 0.00215 5e-05 400.264 3.36796 2.83394e-05 154.703 2.32125 2.32125 
28 0.00225 5e-05 401.977 3.35158 2.80814e-05 150.92 2.49358 2.49358 
29 0.00235 5e-05 402.723 3.32366 2.77959e-05 147.753 2.02876 2.02876 
30 0.00245 5e-05 404.116 3.3051 2.75453e-05 144.885 2.26922 2.26922 
31 0.00255 5e-05 404.627 3.28545 2.73471e-05 142.031 2.25727 2.25727 
32 0.00265 5e-05 404.955 3.26436 2.71494e-05 138.988 1.65831 1.65831 
33 0.00275 5e-05 405.489 3.24156 2.69243e-05 136.832 1.99431 1.99431 
34 0.00285 5e-05 405.507 3.21989 2.67431e-05 134.457 1.81513 1.81513 
35 0.00295 5e-05 405.772 3.20278 2.65836e-05 132.439 1.40383 1.40383 
36 0.00305 5e-05 406.976 3.18759 2.63793e-05 130.407 1.66734 1.66734 
37 0.00315 5e-05 407.42 3.17487 2.62454e-05 128.067 1.32791 1.32791 
38 0.00325 5e-05 408.895 3.16983 2.61093e-05 125.924 1.12903 1.12903 
39 0.00335 5e-05 408.892 3.14793 2.59291e-05 124.233 0.777127 0.777127 
40 0.00345 5e-05 408.863 3.12726 2.57606e-05 123.472 1.30296 1.30296 
41 0.00355 5e-05 409.55 3.11829 2.56436e-05 121.644 1.17002 1.17002 
42 0.00365 5e-05 409.353 3.10309 2.55309e-05 120.425 0.720335 0.720335 
43 0.00375 5e-05 409.238 3.09322 2.54568e-05 118.776 0.838236 0.838236 
44 0.00385 5e-05 409.914 3.08394 2.53386e-05 117.435 0.606399 0.606399 
45 0.00395 5e-05 410.519 3.07519 2.52295e-05 117.583 0.509954 0.509954 
46 0.00405 5e-05 409.977 3.06252 2.51588e-05 116.325 0.51971 0.51971 
47 0.00415 5e-05 410.476 3.05393 2.50577e-05 115.356 1.1593 1.1593 
48 0.00425 5e-05 410.387 3.04407 2.49823e-05 114.373 0.104314 0.104314 
49 0.00435 5e-05 411.127 3.03057 2.48266e-05 113.171 0.870875 0.870875 
50 0.00445 5e-05 412.109 3.02489 2.47211e-05 112.633 0.354248 0.354248 
51 0.00455 5e-05 410.937 3.00946 2.46651e-05 111.75 0.557059 0.557059 
52 0.00465 5e-05 411.415 2.99551 2.45223e-05 111.481 0.338826 0.338826 
53 0.00475 5e-05 412.185 2.99025 2.44335e-05 110.93 0.244908 0.244908 
54 0.00485 5e-05 411.43 2.97864 2.43833e-05 110.541 0.501804 0.501804 
55 0.00495 5e-05 411.845 2.97322 2.43143e-05 110.372 -0.0548216 -0.0548216 
56 0.00505 5e-05 411.527 2.95589 2.41913e-05 109.962 0.731068 0.731068 
57 0.00515 5e-05 411.794 2.95007 2.41281e-05 109.084 0.260047 0.260047 
58 0.00525 5e-05 412.003 2.941 2.40416e-05 109.049 0.182734 0.182734 
59 0.00535 5e-05 412.335 2.93118 2.39421e-05 108.99 0.041986 0.041986 
60 0.00545 5e-05 411.899 2.92982 2.39563e-05 108.992 0.194424 0.194424 
61 0.00555 5e-05 412.386 2.91767 2.38288e-05 108.655 0.653883 0.653883 
62 0.00565 5e-05 412.087 2.9059 2.37499e-05 108.461 0.0761787 0.0761787 
63 0.00575 5e-05 412.933 2.90256 2.36739e-05 107.613 0.429219 0.429219 
64 0.00585 5e-05 413.378 2.89732 2.36058e-05 107.823 0.337482 0.337482 
65 0.00595 5e-05 413.189 2.88429 2.35104e-05 107.398 0.0049817 0.0049817 
66 0.00605 5e-05 412.824 2.87358 2.34438e-05 107.9 -0.0513203 -0.0513203 
67 0.00615 5e-05 412.61 2.86571 2.33917e-05 108.012 0.187501 0.187501 
68 0.00625 5e-05 413.578 2.86332 2.33175e-05 107.663 -0.104604 -0.104604 
69 0.00635 5e-05 412.82 2.84861 2.32403e-05 108.35 -0.157959 -0.157959 
70 0.00645 5e-05 411.331 2.83159 2.3185e-05 108.042 0.0242119 0.0242119 
71 0.00655 5e-05 412.849 2.83291 2.31106e-05 108.365 0.0724341 0.0724341 
72 0.00665 5e-05 412.722 2.82014 2.30134e-05 108.768 0.130797 0.130797 
73 0.00675 5e-05 412.506 2.81265 2.29644e-05 108.847 0.114622 0.114622 
74 0.00685 5e-05 411.697 2.80526 2.29491e-05 108.396 -0.0961041 -0.0961041 
75 0.00695 5e-05 411.213 2.79611 2.29011e-05 108.475 0.495447 0.495447 
76 0.00705 5e-05 411.781 2.78208 2.27548e-05 108.594 -0.0917294 -0.0917294 
77 0.00715 5e-05 411.984 2.77403 2.26778e-05 108.703 0.0892625 0.0892625 
78 0.00725 5e-05 412.237 2.76988 2.26299e-05 109.171 0.150055 0.150055 
79 0.00735 5e-05 412.626 2.75984 2.25267e-05 109.691 0.0637828 0.0637828 
80 0.00745 5e-05 412.288 2.75028 2.24671e-05 109.724 0.585574 0.585574 
81 0.00755 5e-05 412.623 2.73947 2.23606e-05 109.939 -0.0637838 -0.0637838 
82 0.00765 5e-05 412.82 2.7396 2.23509e-05 109.812 0.292417 0.292417 
83 0.00775 5e-05 412.729 2.72541 2.22402e-05 110.181 0.219746 0.219746 
84 0.00785 5e-05 412.309 2.71688 2.21931e-05 109.888 -0.501839 -0.501839 
85 0.00795 5e-05 412.668 2.71008 2.21182e-05 110.978 -0.0837517 -0.0837517 
86 0.00805 5e-05 412.166 2.69813 2.20475e-05 110.817 0.536215 0.536215 
87 0.00815 5e-05 412.216 2.69308 2.20036e-05 111.289 -0.241779 -0.241779 
88 0.00825 5e-05 412.877 2.69038 2.19464e-05 111.369 0.148819 0.148819 
89 0.00835 5e-05 411.998 2.67703 2.18841e-05 111.418 0.273392 0.273392 
90 0.00845 5e-05 412.481 2.66323 2.17458e-05 112.399 0.144127 0.144127 
91 0.00855 5e-05 412.458 2.65555 2.16843e-05 112 -0.246166 -0.246166 
92 0.00865 5e-05 412.509 2.65059 2.16411e-05 112.056 0.39367 0.39367 
93 0.00875 5e-05 412.466 2.64077 2.15631e-05 111.814 -0.0200304 -0.0200304 
94 0.00885 5e-05 412.721 2.63774 2.15251e-05 113.286 -0.440058 -0.440058 
95 0.00895 5e-05 412.001 2.62682 2.14735e-05 113.434 0.30799 0.30799 
96 0.00905 5e-05 411.838 2.61397 2.13769e-05 113.929 0.239028 0.239028 
97 0.00915 5e-05 412.143 2.60164 2.12602e-05 113.938 -0.240946 -0.240946 
98 0.00925 5e-05 412.167 2.59804 2.12296e-05 115.013 0.389404 0.389404 
99 0.00935 5e-05 412.181 2.58665 2.11358e-05 114.425 0.507971 0.507971 
100 0.00945 5e-05 411.91 2.58016 2.10967e-05 115.219 -0.707631 -0.707631 
101 0.00955 5e-05 412.221 2.57208 2.10148e-05 115.679 0.0984586 0.0984586 
102 0.00965 5e-05 412.372 2.55867 2.08975e-05 116.449 -0.100049 -0.100049 
103 0.00975 5e-05 412.036 2.55494 2.08841e-05 116.501 -0.268545 -0.268545 
104 0.00985 5e-05 411.766 2.54797 2.08407e-05 116.394 0.783215 0.783215 
105 0.00995 5e-05 411.589 2.53885 2.07751e-05 117.277 -0.112458 -0.112458 
106 0.01005 5e-05 412.285 2.52723 2.06451e-05 117.247 0.333049 0.333049 
107 0.01015 5e-05 412.241 2.52033 2.0591e-05 117.701 0.26694 0.26694 
108 0.01025 5e-05 412.632 2.5142 2.05214e-05 118.353 -0.10577 -0.10577 
109 0.01035 5e-05 412.253 2.50628 2.04756e-05 118.566 0.144053 0.144053 
110 0.01045 5e-05 412.399 2.49243 2.03552e-05 118.982 0.0387459 0.0387459 
111 0.01055 5e-05 412.522 2.48105 2.02562e-05 119.081 0.304954 0.304954 
112 0.01065 5e-05 412.554 2.47547 2.02091e-05 119.826 -0.0385704 -0.0385704 
113 0.01075 5e-05 411.827 2.46165 2.01317e-05 120.368 -0.180069 -0.180069 
114 0.01085 5e-05 412.216 2.4549 2.00576e-05 120.85 0.0441857 0.0441857 
115 0.01095 5e-05 411.546 2.4402 1.997e-05 120.776 -0.0613428 -0.0613428 
116 0.01105 5e-05 411.572 2.43325 1.99119e-05 121.609 0.131933 0.131933 
117 0.01115 5e-05 411.732 2.42577 1.98429e-05 121.447 0.339677 0.339677 
118 0.01125 5e-05 411.362 2.41923 1.98072e-05 121.884 -0.379672 -0.379672 
119 0.01135 5e-05 411.647 2.41335 1.97454e-05 122.537 -0.490537 -0.490537 
120 0.01145 5e-05 411.521 2.40287 1.96656e-05 123.103 0.000133114 0.000133114 
121 0.01155 5e-05 411.508 2.39001 1.9561e-05 123.513 0.371221 0.371221 
122 0.01165 5e-05 412.017 2.38877 1.95267e-05 123.206 0.00247591 0.00247591 
123 0.01175 5e-05 412.142 2.38168 1.94629e-05 123.614 0.026972 0.026972 
124 0.01185 5e-05 411.503 2.36946 1.93931e-05 123.97 0.330875 0.330875 
125 0.01195 5e-05 411.435 2.36182 1.93337e-05 124.82 -0.170984 -0.170984 
126 0.01205 5e-05 411.876 2.35153 1.92288e-05 125.333 0.0573878 0.0573878 
127 0.01215 5e-05 411.256 2.34248 1.91838e-05 125.486 -0.129273 -0.129273 
128 0.01225 5e-05 410.739 2.33163 1.91189e-05 125.854 0.241304 0.241304 
129 0.01235 5e-05 411.122 2.32548 1.90507e-05 126.158 0.419209 0.419209 
130 0.01245 5e-05 411.389 2.31105 1.89202e-05 126.907 0.0867133 0.0867133 
131 0.01255 5e-05 411.149 2.30185 1.88559e-05 127.448 0.21196 0.21196 
132 0.01265 5e-05 411.111 2.29766 1.88233e-05 127.633 -0.469577 -0.469577 
133 0.01275 5e-05 411.098 2.29269 1.87832e-05 128.381 -0.182308 -0.182308 
134 0.01285 5e-05 411.509 2.28379 1.86916e-05 129.348 -0.299046 -0.299046 
135 0.01295 5e-05 410.979 2.26978 1.86009e-05 129.568 0.117004 0.117004 
136 0.01305 5e-05 409.823 2.2522 1.85089e-05 129.889 0.0675103 0.0675103 
137 0.01315 5e-05 409.897 2.24731 1.84653e-05 130.061 0.410836 0.410836 
138 0.01325 5e-05 410.701 2.24062 1.83743e-05 130.583 0.0372273 0.0372273 
139 0.01335 5e-05 410.532 2.23326 1.83216e-05 130.988 0.190017 0.190017 
140 0.01345 5e-05 410.624 2.22384 1.82401e-05 131.214 -0.477393 -0.477393 
141 0.01355 5e-05 410.672 2.21476 1.81636e-05 131.163 0.269259 0.269259 
142 0.01365 5e-05 410.723 2.20469 1.80788e-05 132.483 -0.0670376 -0.0670376 
143 0.01375 5e-05 410.189 2.19319 1.80079e-05 132.306 -0.517883 -0.517883 
144 0.01385 5e-05 410.291 2.18857 1.79654e-05 133.776 -0.339697 -0.339697 
145 0.01395 5e-05 410.215 2.17993 1.78979e-05 134.487 -0.0194324 -0.0194324 
146 0.01405 5e-05 409.99 2.16864 1.7815e-05 134.954 0.461769 0.461769 
147 0.01415 5e-05 410.39 2.15845 1.77139e-05 135.388 -0.0754691 -0.0754691 
148 0.01425 5e-05 409.699 2.14702 1.76498e-05 136.284 0.663396 0.663396 
149 0.01435 5e-05 410.053 2.14162 1.75903e-05 136.592 -0.185002 -0.185002 
150 0.01445 5e-05 409.474 2.12951 1.75155e-05 137.414 -0.0499751 -0.0499751 
151 0.01455 5e-05 409.397 2.12401 1.74736e-05 138.157 0.0987238 0.0987238 
152 0.01465 5e-05 409.788 2.11082 1.73485e-05 138.162 0.301164 0.301164 
153 0.01475 5e-05 409.371 2.10408 1.73107e-05 138.654 0.243654 0.243654 
154 0.01485 5e-05 409.554 2.09312 1.72128e-05 139.465 -0.448674 -0.448674 
155 0.01495 5e-05 409.449 2.08443 1.71458e-05 139.853 0.0970605 0.0970605 
156 0.01505 5e-05 409.374 2.07538 1.70744e-05 140.838 0.303049 0.303049 
157 0.01515 5e-05 409.598 2.06612 1.6989e-05 141.017 -0.188987 -0.188987 
158 0.01525 5e-05 408.646 2.05076 1.6902e-05 141.391 0.777099 0.777099 
159 0.01535 5e-05 408.631 2.04431 1.68494e-05 141.838 -0.416977 -0.416977 
160 0.01545 5e-05 409.171 2.04079 1.67982e-05 142.566 0.267827 0.267827 
161 0.01555 5e-05 409.231 2.03165 1.67206e-05 143.054 -0.533684 -0.533684 
162 0.01565 5e-05 408.076 2.01804 1.66555e-05 143.594 -0.774735 -0.774735 
163 0.01575 5e-05 409.68 2.01485 1.65641e-05 145.067 -0.0183527 -0.0183527 
164 0.01585 5e-05 407.794 1.99828 1.65039e-05 145.173 0.340903 0.340903 
165 0.01595 5e-05 408.246 1.98769 1.63982e-05 145.284 -0.0565164 -0.0565164 
166 0.01605 5e-05 408.519 1.98569 1.63708e-05 146.14 0.339695 0.339695 
167 0.01615 5e-05 408.047 1.97536 1.63044e-05 146.413 -0.581167 -0.581167 
168 0.01625 5e-05 407.245 1.96346 1.62381e-05 147.35 -0.296705 -0.296705 
169 0.01635 5e-05 407.06 1.95357 1.61637e-05 148.073 0.573123 0.573123 
170 0.01645 5e-05 406.978 1.93723 1.60317e-05 148.575 0.136028 0.136028 
171 0.01655 5e-05 407.89 1.93399 1.59691e-05 149.398 0.264335 0.264335 
172 0.01665 5e-05 406.46 1.92316 1.59356e-05 149.312 0.0418435 0.0418435 
173 0.01675 5e-05 406.994 1.91567 1.58527e-05 150.202 0.172381 0.172381 
174 0.01685 5e-05 406.577 1.90447 1.57761e-05 150.987 -0.302649 -0.302649 
175 0.01695 5e-05 407.196 1.90064 1.57205e-05 151.771 -0.223588 -0.223588 
176 0.01705 5e-05 406.799 1.88814 1.56323e-05 152.769 -0.105556 -0.105556 
177 0.01715 5e-05 406.489 1.88079 1.55833e-05 153.48 0.903693 0.903693 
178 0.01725 5e-05 406.395 1.8682 1.54826e-05 153.192 0.108937 0.108937 
179 0.01735 5e-05 406.178 1.85883 1.54132e-05 153.861 -0.452419 -0.452419 
180 0.01745 5e-05 406.623 1.84905 1.53154e-05 154.897 -0.015619 -0.015619 
181 0.01755 5e-05 406.113 1.83895 1.52508e-05 156.272 -0.168085 -0.168085 
182 0.01765 5e-05 406.027 1.83235 1.51993e-05 156.645 0.476735 0.476735 
183 0.01775 5e-05 404.679 1.8182 1.51321e-05 157.422 -0.0973717 -0.0973717 
184 0.01785 5e-05 405.786 1.81507 1.50649e-05 158.066 0.248663 0.248663 
185 0.01795 5e-05 405.194 1.80428 1.49972e-05 158.678 -0.27171 -0.27171 
186 0.01805 5e-05 405.357 1.79039 1.48758e-05 159.907 0.178806 0.178806 
187 0.01815 5e-05 405.509 1.77876 1.47736e-05 160.296 0.289322 0.289322 
188 0.01825 5e-05 405.582 1.77928 1.47753e-05 160.749 -0.0266917 -0.0266917 
189 0.01835 5e-05 404.712 1.76433 1.46826e-05 161.346 0.09409 0.09409 
190 0.01845 5e-05 404.365 1.7537 1.46067e-05 162.152 0.501134 0.501134 
191 0.01855 5e-05 404.338 1.74444 1.45305e-05 162.957 -0.459429 -0.459429 
192 0.01865 5e-05 404.325 1.73215 1.44287e-05 163.758 0.300147 0.300147 
193 0.01875 5e-05 402.962 1.72111 1.43852e-05 164.763 -0.0864089 -0.0864089 
194 0.01885 5e-05 402.844 1.70945 1.42919e-05 166.639 -0.110929 -0.110929 
195 0.01895 5e-05 403.064 1.70115 1.42147e-05 167.29 0.813138 0.813138 
196 0.01905 5e-05 402.826 1.69601 1.41802e-05 167.213 0.360181 0.360181 
197 0.01915 5e-05 402.354 1.68351 1.40922e-05 168.123 0.275167 0.275167 
198 0.01925 5e-05 403.084 1.67508 1.39962e-05 169.384 -0.363909 -0.363909 
199 0.01935 5e-05 401.83 1.66832 1.39832e-05 170.157 -0.638918 -0.638918 
200 0.01945 5e-05 401.42 1.65442 1.38808e-05 170.726 -0.0823463 -0.0823463 
201 0.01955 5e-05 402.601 1.65051 1.38074e-05 171.41 0.366122 0.366122 
202 0.01965 5e-05 401.202 1.63404 1.37173e-05 172.498 -0.145946 -0.145946 
203 0.01975 5e-05 401.628 1.62561 1.36321e-05 173.986 0.14812 0.14812 
204 0.01985 5e-05 400.785 1.61632 1.35826e-05 174.216 -0.205556 -0.205556 
205 0.01995 5e-05 400.937 1.6124 1.35446e-05 174.701 -0.264156 -0.264156 
206 0.02005 5e-05 400.915 1.60071 1.34472e-05 176.345 -0.034496 -0.034496 
207 0.02015 5e-05 401.046 1.59173 1.33673e-05 176.966 0.215243 0.215243 
208 0.02025 5e-05 400.332 1.5763 1.32613e-05 178.301 -0.338979 -0.338979 
209 0.02035 5e-05 400.734 1.57169 1.32093e-05 179.278 0.240574 0.240574 
210 0.02045 5e-05 400.48 1.5587 1.31085e-05 180.59 -0.33196 -0.33196 
211 0.02055 5e-05 399.676 1.55026 1.30637e-05 181.414 -0.63239 -0.63239 
212 0.02065 5e-05 399.006 1.53431 1.2951e-05 182.971 0.356959 0.356959 
213 0.02075 5e-05 398.482 1.52736 1.29093e-05 184.09 -0.0748642 -0.0748642 
214 0.02085 5e-05 398.283 1.51382 1.28012e-05 184.34 0.00665086 0.00665086 
215 0.02095 5e-05 398.586 1.50594 1.27249e-05 186.722 0.0993706 0.0993706 
216 0.02105 5e-05 397.997 1.4954 1.26546e-05 186.621 0.250458 0.250458 
217 0.02115 5e-05 397.243 1.48606 1.25994e-05 187.853 0.289646 0.289646 
218 0.02125 5e-05 397.621 1.47453 1.24897e-05 189.453 -0.285975 -0.285975 
219 0.02135 5e-05 397.391 1.46491 1.24155e-05 190.893 0.31997 0.31997 
220 0.02145 5e-05 396.436 1.45446 1.23566e-05 191.548 0.219088 0.219088 
221 0.02155 5e-05 396.811 1.44264 1.22446e-05 192.853 0.265585 0.265585 
222 0.02165 5e-05 396.338 1.43517 1.21958e-05 193.769 0.172922 0.172922 
223 0.02175 5e-05 395.636 1.42337 1.21169e-05 194.971 -0.508347 -0.508347 
224 0.02185 5e-05 395.734 1.41284 1.20243e-05 196.616 0.382964 0.382964 
225 0.02195 5e-05 394.567 1.39505 1.1908e-05 198.691 -0.176322 -0.176322 
226 0.02205 5e-05 393.612 1.38514 1.18521e-05 200.027 0.269121 0.269121 
227 0.02215 5e-05 393.897 1.38249 1.18209e-05 200.195 -0.379741 -0.379741 
228 0.02225 5e-05 393.856 1.3693 1.17093e-05 202.382 0.193208 0.193208 
229 0.02235 5e-05 392.77 1.35654 1.16323e-05 203.547 0.044699 0.044699 
230 0.02245 5e-05 392.677 1.34878 1.15685e-05 205.04 -0.235898 -0.235898 
231 0.02255 5e-05 392.552 1.34096 1.15051e-05 205.917 -0.432066 -0.432066 
232 0.02265 5e-05 390.81 1.32088 1.13833e-05 208.184 -0.0283118 -0.0283118 
233 0.02275 5e-05 390.852 1.31649 1.13442e-05 209.094 -0.585938 -0.585938 
234 0.02285 5e-05 390.304 1.30444 1.12562e-05 210.741 0.147061 0.147061 
235 0.02295 5e-05 389.976 1.29609 1.11935e-05 212.16 -0.291189 -0.291189 
236 0.02305 5e-05 389.393 1.2842 1.11075e-05 213.696 -0.00158531 -0.00158531 
237 0.02315 5e-05 389.131 1.27379 1.10248e-05 215.235 0.0100515 0.0100515 
238 0.02325 5e-05 388.83 1.26539 1.09606e-05 216.312 -0.0272001 -0.0272001 
239 0.02335 5e-05 387.88 1.25213 1.08724e-05 218.072 0.620344 0.620344 
240 0.02345 5e-05 387.773 1.24322 1.0798e-05 219.833 0.376413 0.376413 
241 0.02355 5e-05 387.012 1.23074 1.07105e-05 221.603 -0.189463 -0.189463 
242 0.02365 5e-05 386.345 1.21672 1.06068e-05 223.237 -0.158165 -0.158165 
243 0.02375 5e-05 385.612 1.20685 1.05408e-05 225.168 0.158721 0.158721 
244 0.02385 5e-05 383.732 1.1926 1.04674e-05 226.475 -0.761528 -0.761528 
245 0.02395 5e-05 383.553 1.18572 1.04118e-05 227.711 0.288358 0.288358 
246 0.02405 5e-05 383.246 1.17254 1.03043e-05 229.996 -0.0606694 -0.0606694 
247 0.02415 5e-05 382.932 1.16146 1.02153e-05 232.434 0.0033013 0.0033013 
248 0.02425 5e-05 381.289 1.14877 1.01473e-05 233.268 0.167233 0.167233 
249 0.02435 5e-05 380.651 1.13674 1.00578e-05 235.23 0.00132573 0.00132573 
250 0.02445 5e-05 380.135 1.1243 9.96127e-06 238.952 -0.50281 -0.50281 
251 0.02455 5e-05 379.172 1.11441 9.8987e-06 239.498 0.460899 0.460899 
252 0.02465 5e-05 378.948 1.10213 9.79541e-06 241.19 0.432516 0.432516 
253 0.02475 5e-05 377.014 1.08707 9.71113e-06 242.942 -0.455435 -0.455435 
254 0.02485 5e-05 375.665 1.07596 9.64643e-06 244.918 -0.81465 -0.81465 
255 0.02495 5e-05 375.752 1.06496 9.54556e-06 247.157 0.775003 0.775003 
256 0.02505 5e-05 375.432 1.05479 9.46249e-06 249.664 -0.682541 -0.682541 
257 0.02515 5e-05 373.726 1.03861 9.35982e-06 252.189 -1.15809 -1.15809 
258 0.02525 5e-05 372.998 1.02761 9.27881e-06 255.071 0.33887 0.33887 
259 0.02535 5e-05 371.755 1.0124 9.17203e-06 257.185 0.188645 0.188645 
260 0.02545 5e-05 371.188 1.00306 9.10133e-06 259.285 -0.0432946 -0.0432946 
261 0.02555 5e-05 369.522 0.994103 9.06067e-06 261.422 -0.141218 -0.141218 
262 0.02565 5e-05 367.89 0.975173 8.92757e-06 264.946 0.227865 0.227865 
263 0.02575 5e-05 366.165 0.960485 8.83452e-06 267.012 0.0933935 0.0933935 
264 0.02585 5e-05 364.415 0.948032 8.76186e-06 269.557 -0.633837 -0.633837 
265 0.02595 5e-05 363.677 0.935489 8.66347e-06 272.417 0.315067 0.315067 
266 0.02605 5e-05 362.994 0.925089 8.58329e-06 275.238 -0.725396 -0.725396 
267 0.02615 5e-05 361.312 0.913779 8.51783e-06 278.464 -0.198752 -0.198752 
268 0.02625 5e-05 360.297 0.900105 8.41401e-06 281.606 0.622948 0.622948 
269 0.02635 5e-05 357.617 0.881799 8.30464e-06 284.59 0.252037 0.252037 
270 0.02645 5e-05 357.009 0.872625 8.23223e-06 287.731 -0.698384 -0.698384 
271 0.02655 5e-05 355.175 0.858408 8.13994e-06 290.472 0.48644 0.48644 
272 0.02665 5e-05 354.869 0.848219 8.05025e-06 293.07 -0.0524398 -0.0524398 
273 0.02675 5e-05 352.998 0.833491 7.95241e-06 296.106 -0.144538 -0.144538 
274 0.02685 5e-05 351.094 0.820186 7.86789e-06 299.061 1.40129 1.40129 
275 0.02695 5e-05 348.263 0.805661 7.79137e-06 302.212 -0.364131 -0.364131 
276 0.02705 5e-05 345.329 0.786762 7.67326e-06 306.009 0.203187 0.203187 
277 0.02715 5e-05 343.627 0.77196 7.5662e-06 309.607 0.117602 0.117602 
278 0.02725 5e-05 343.039 0.760005 7.46178e-06 313.984 0.179006 0.179006 
279 0.02735 5e-05 341.008 0.747512 7.38284e-06 316.81 1.0025 1.0025 
280 0.02745 5e-05 338.742 0.7327 7.28495e-06 320.284 0.471016 0.471016 
281 0.02755 5e-05 336.662 0.721239 7.21531e-06 322.709 0.431963 0.431963 
282 0.02765 5e-05 334.191 0.70476 7.10258e-06 327.172 -0.32998 -0.32998 
283 0.02775 5e-05 331.796 0.688043 6.98415e-06 331.733 0.290474 0.290474 
284 0.02785 5e-05 329.448 0.676726 6.91825e-06 335.382 0.519916 0.519916 
285 0.02795 5e-05 327.886 0.664294 6.8235e-06 338.184 0.308211 0.308211 
286 0.02805 5e-05 325.365 0.649496 6.72319e-06 342.994 0.947028 0.947028 
287 0.02815 5e-05 323.702 0.63811 6.63927e-06 346.701 -0.510332 -0.510332 
288 0.02825 5e-05 320.515 0.624204 6.55916e-06 350.846 0.687167 0.687167 
289 0.02835 5e-05 317.64 0.607442 6.44079e-06 356.136 0.325794 0.325794 
290 0.02845 5e-05 315.441 0.595625 6.35953e-06 358.599 0.264753 0.264753 
291 0.02855 5e-05 312.248 0.579117 6.24649e-06 364.131 1.06633 1.06633 
292 0.02865 5e-05 309.108 0.562621 6.13021e-06 368.959 0.831387 0.831387 
293 0.02875 5e-05 306.96 0.550161 6.03641e-06 372.468 1.10223 1.10223 
294 0.02885 5e-05 303.993 0.534124 5.91763e-06 378.913 0.0366672 0.0366672 
295 0.02895 5e-05 300.184 0.51752 5.80644e-06 384.651 1.4023 1.4023 
296 -0.00045 0.00015 374.097 10.5956 9.53914e-05 189.633 -0.628841 -0.628841 
297 -0.00035 0.00015 369.112 9.31854 8.50276e-05 209.081 6.08641 6.08641 
298 -0.00025 0.00015 365.253 8.36238 7.7109e-05 222.871 11.8186 11.8186 
299 -0.00015 0.00015 361.366 7.5406 7.02795e-05 235.061 15.7419 15.7419 
300 -5e-05 0.00015 357.691 6.83878 6.43932e-05 245.294 19.1274 19.1274 
301 5e-05 0.00015 354.263 6.21303 5.90673e-05 253.265 23.1568 23.1568 
302 0.00015 0.00015 352.645 5.685 5.42954e-05 258.321 26.6118 26.6118 
303 0.00025 0.00015 352.697 5.26512 5.02779e-05 259.697 29.8694 29.8694 
304 0.00035 0.00015 353.98 4.93394 4.69446e-05 257.356 30.7195 30.7195 
305 0.00045 0.00015 357.179 4.6746 4.40787e-05 252.803 30.7661 30.7661 
306 0.00055 0.00015 360.625 4.46706 4.17192e-05 247.138 29.8927 29.8927 
307 0.00065 0.00015 364.66 4.29789 3.96952e-05 240.353 27.9952 27.9952 
308 0.00075 0.00015 368.805 4.16455 3.80313e-05 233.204 26.2187 26.2187 
309 0.00085 0.00015 372.565 4.04435 3.65609e-05 225.849 24.0976 24.0976 
310 0.00095 0.00015 376.018 3.94985 3.53788e-05 218.159 21.9926 21.9926 
311 0.00105 0.00015 379.132 3.86887 3.43687e-05 211.228 19.9937 19.9937 
312 0.00115 0.00015 382.313 3.79343 3.34182e-05 204.438 18.3114 18.3114 
313 0.00125 0.00015 385.09 3.72164 3.25493e-05 197.725 16.5529 16.5529 
314 0.00135 0.00015 387.522 3.66414 3.18454e-05 192.134 15.4438 15.4438 
315 0.00145 0.00015 389.928 3.61172 3.1196e-05 186.296 14.193 14.193 
316 0.00155 0.00015 391.868 3.56987 3.06818e-05 180.156 12.7418 12.7418 
317 0.00165 0.00015 393.127 3.5325 3.02635e-05 175.018 11.8486 11.8486 
318 0.00175 0.00015 395.09 3.4897 2.97483e-05 170.084 10.398 10.398 
319 0.00185 0.00015 396.277 3.45194 2.93383e-05 166.102 10.3501 10.3501 
320 0.00195 0.00015 398.161 3.42584 2.89787e-05 161.697 9.40366 9.40366 
321 0.00205 0.00015 399.004 3.38941 2.86099e-05 157.92 8.64919 8.64919 
322 0.00215 0.00015 399.991 3.36197 2.83083e-05 153.942 7.90633 7.90633 
323 0.00225 0.00015 401.54 3.34646 2.8069e-05 150.359 7.12103 7.12103 
324 0.00235 0.00015 402.659 3.31714 2.77458e-05 147.082 7.15001 7.15001 
325 0.00245 0.00015 404.196 3.30061 2.75025e-05 144.29 6.03869 6.03869 
326 0.00255 0.00015 404.292 3.26998 2.72408e-05 141.557 6.12282 6.12282 
327 0.00265 0.00015 405.243 3.26001 2.7094e-05 138.519 5.13229 5.13229 
328 0.00275 0.00015 405.517 3.24002 2.69096e-05 136.062 5.11405 5.11405 
329 0.00285 0.00015 405.756 3.22018 2.67291e-05 134.172 4.63874 4.63874 
330 0.00295 0.00015 406.724 3.21432 2.6617e-05 131.311 4.25505 4.25505 
331 0.00305 0.00015 407.32 3.19391 2.64093e-05 129.34 4.25446 4.25446 
332 0.00315 0.00015 407.919 3.17592 2.6222e-05 127.55 4.35658 4.35658 
333 0.00325 0.00015 407.992 3.15672 2.60587e-05 125.893 3.98492 3.98492 
334 0.00335 0.00015 408.411 3.14518 2.59369e-05 124.402 3.19386 3.19386 
335 0.00345 0.00015 409.215 3.1333 2.57882e-05 122.983 2.75537 2.75537 
336 0.00355 0.00015 409.549 3.11952 2.56538e-05 121.6 2.84358 2.84358 
337 0.00365 0.00015 409.641 3.11232 2.55889e-05 120.472 2.40581 2.40581 
338 0.00375 0.00015 409.016 3.09477 2.54834e-05 119.525 3.3273 3.3273 
339 0.00385 0.00015 410.048 3.08688 2.53544e-05 117.852 1.9314 1.9314 
340 0.00395 0.00015 409.927 3.07456 2.52608e-05 116.202 1.96497 1.96497 
341 0.00405 0.00015 410.471 3.06391 2.51399e-05 115.183 2.16721 2.16721 
342 0.00415 0.00015 410.615 3.05275 2.50396e-05 114.511 2.09152 2.09152 
343 0.00425 0.00015 410.855 3.04398 2.4953e-05 113.978 1.87859 1.87859 
344 0.00435 0.00015 411.79 3.03565 2.48282e-05 113.591 2.81895 2.81895 
345 0.00445 0.00015 411.387 3.01897 2.4716e-05 112.32 1.57058 1.57058 
346 0.00455 0.00015 411.906 3.01237 2.46309e-05 111.956 1.64711 1.64711 
347 0.00465 0.00015 411.58 2.99999 2.45491e-05 111.118 1.08582 1.08582 
348 0.00475 0.00015 411.251 2.9889 2.4478e-05 111.264 1.6745 1.6745 
349 0.00485 0.00015 412.256 2.98239 2.4365e-05 110.465 1.0344 1.0344 
350 0.00495 0.00015 411.948 2.97252 2.43025e-05 109.887 1.10492 1.10492 
351 0.00505 0.00015 411.346 2.96183 2.42506e-05 109.207 1.42755 1.42755 
352 0.00515 0.00015 412.482 2.95739 2.41476e-05 109.705 1.37482 1.37482 
353 0.00525 0.00015 412.447 2.94903 2.40814e-05 109.01 0.804343 0.804343 
354 0.00535 0.00015 411.492 2.93408 2.40149e-05 108.694 0.881756 0.881756 
355 0.00545 0.00015 412.352 2.92449 2.38864e-05 108.702 0.0473067 0.0473067 
356 0.00555 0.00015 412.045 2.91465 2.38238e-05 108.256 1.4826 1.4826 
357 0.00565 0.00015 412.421 2.90952 2.37602e-05 108.276 0.778927 0.778927 
358 0.00575 0.00015 412.762 2.90196 2.36789e-05 108.346 1.26781 1.26781 
359 0.00585 0.00015 412.763 2.89183 2.35962e-05 107.823 0.336997 0.336997 
360 0.00595 0.00015 412.493 2.88515 2.3557e-05 107.813 0.260303 0.260303 
361 0.00605 0.00015 413.258 2.87016 2.33913e-05 107.852 0.593448 0.593448 
362 0.00615 0.00015 412.601 2.86087 2.33527e-05 108.205 0.451059 0.451059 
363 0.00625 0.00015 413.075 2.85498 2.32779e-05 108.14 0.0083021 0.0083021 
364 0.00635 0.00015 413.243 2.84861 2.32165e-05 107.828 0.516922 0.516922 
365 0.00645 0.00015 412.447 2.83404 2.31424e-05 108.134 0.636182 0.636182 
366 0.00655 0.00015 412.834 2.83034 2.30904e-05 107.504 0.286343 0.286343 
367 0.00665 0.00015 412.438 2.81964 2.30253e-05 107.913 0.322397 0.322397 
368 0.00675 0.00015 412.69 2.81171 2.29465e-05 107.648 0.0795778 0.0795778 
369 0.00685 0.00015 412.264 2.80684 2.29304e-05 108.222 0.307626 0.307626 
370 0.00695 0.00015 412.108 2.79004 2.28018e-05 108.776 0.531869 0.531869 
371 0.00705 0.00015 412.273 2.78785 2.27748e-05 108.811 0.642163 0.642163 
372 0.00715 0.00015 412.017 2.77601 2.26922e-05 109.208 -0.363187 -0.363187 
373 0.00725 0.00015 412.247 2.76393 2.25808e-05 109.21 0.0639744 0.0639744 
374 0.00735 0.00015 412.644 2.76003 2.25273e-05 109.469 0.289012 0.289012 
375 0.00745 0.00015 413.071 2.75674 2.24772e-05 109.248 0.324156 0.324156 
376 0.00755 0.00015 413.24 2.74697 2.23883e-05 109.839 0.324282 0.324282 
377 0.00765 0.00015 412.234 2.73404 2.23373e-05 109.655 0.357171 0.357171 
378 0.00775 0.00015 412.734 2.73045 2.22809e-05 109.719 0.407323 0.407323 
379 0.00785 0.00015 412.268 2.72118 2.22304e-05 110.402 0.0337289 0.0337289 
380 0.00795 0.00015 411.664 2.70641 2.21422e-05 110.477 -0.160305 -0.160305 
381 0.00805 0.00015 412.6 2.70222 2.20577e-05 111.334 0.405856 0.405856 
382 0.00815 0.00015 412.393 2.68838 2.19558e-05 111.953 0.156836 0.156836 
383 0.00825 0.00015 413.13 2.68763 2.19105e-05 111.213 0.0998025 0.0998025 
384 0.00835 0.00015 412.967 2.67828 2.18429e-05 111.518 0.362649 0.362649 
385 0.00845 0.00015 412.839 2.66746 2.17615e-05 112.155 -0.108345 -0.108345 
386 0.00855 0.00015 412.547 2.66071 2.17217e-05 112.12 0.612764 0.612764 
387 0.00865 0.00015 412.265 2.65057 2.16537e-05 112.772 -0.164148 -0.164148 
388 0.00875 0.00015 412.649 2.6422 2.15652e-05 113.163 -0.00365601 -0.00365601 
389 0.00885 0.00015 412.082 2.63382 2.15265e-05 113.178 -0.389956 -0.389956 
390 0.00895 0.00015 412.14 2.62505 2.14517e-05 112.901 0.201875 0.201875 
391 0.00905 0.00015 412.546 2.61439 2.13436e-05 113.505 0.179794 0.179794 
392 0.00915 0.00015 412.037 2.60487 2.12922e-05 114.084 0.264883 0.264883 
393 0.00925 0.00015 412.493 2.59765 2.12097e-05 114.132 -0.242975 -0.242975 
394 0.00935 0.00015 412.342 2.5894 2.115e-05 114.846 0.182127 0.182127 
395 0.00945 0.00015 411.664 2.57889 2.10989e-05 115.541 0.102911 0.102911 
396 0.00955 0.00015 412.043 2.57088 2.1014e-05 115.644 0.275393 0.275393 
397 0.00965 0.00015 412.346 2.56177 2.09241e-05 115.553 -0.213553 -0.213553 
398 0.00975 0.00015 412.3 2.54725 2.08079e-05 116.274 0.270089 0.270089 
399 0.00985 0.00015 412.17 2.54418 2.07894e-05 116.193 0.194365 0.194365 
400 0.00995 0.00015 412.795 2.53366 2.06721e-05 116.369 0.0434898 0.0434898 
401 0.01005 0.00015 411.665 2.52584 2.06648e-05 116.925 -0.272145 -0.272145 
402 0.01015 0.00015 412.418 2.51699 2.05548e-05 117.246 -0.422621 -0.422621 
403 0.01025 0.00015 412.752 2.51266 2.05029e-05 117.979 0.111427 0.111427 
404 0.01035 0.00015 412.145 2.49926 2.04236e-05 118.284 -0.0459507 -0.0459507 
405 0.01045 0.00015 412.216 2.49213 2.03618e-05 118.521 0.253868 0.253868 
406 0.01055 0.00015 412.196 2.48584 2.03113e-05 118.717 0.195575 0.195575 
407 0.01065 0.00015 412.049 2.47556 2.02346e-05 119.309 -0.539011 -0.539011 